
1 atoms
1 atom types
0.0000000000000 1.0000000000000 xlo xhi
0.0000000000000 1.0000000000000 ylo yhi
0.0000000000000 1.0000000000000 zlo zhi

Atoms # atomic

1 1 0.5000000000000 0.5000000000000 0.5000000000000
